
Host: LAPTOP-GRQ8OHR4

Timers On : Fri Jan 17 23:11:06 2025
Timers Off: Fri Jan 17 23:11:09 2025

Wall Time:        2.71 seconds

                                                       Time (seconds)
Module                                       User      System        Wall        Calls

--------------------------------------------------------------------------------------

**************************************************************************************
